+ 1 0 3 tcp 40 ------- 2 0.0 4.0 0 0
- 1 0 3 tcp 40 ------- 2 0.0 4.0 0 0
r 1.00014 0 3 tcp 40 ------- 2 0.0 4.0 0 0
+ 1.00014 3 4 tcp 40 ------- 2 0.0 4.0 0 0
- 1.00014 3 4 tcp 40 ------- 2 0.0 4.0 0 0
r 1.10054 3 4 tcp 40 ------- 2 0.0 4.0 0 0
+ 1.10054 4 3 ack 40 ------- 2 4.0 0.0 0 1
- 1.10054 4 3 ack 40 ------- 2 4.0 0.0 0 1
+ 1.2 1 3 tcp 40 ------- 3 1.0 4.1 0 2
- 1.2 1 3 tcp 40 ------- 3 1.0 4.1 0 2
+ 1.2 2 3 tcp 40 ------- 1 2.0 4.2 0 3
- 1.2 2 3 tcp 40 ------- 1 2.0 4.2 0 3
r 1.20014 1 3 tcp 40 ------- 3 1.0 4.1 0 2
+ 1.20014 3 4 tcp 40 ------- 3 1.0 4.1 0 2
- 1.20014 3 4 tcp 40 ------- 3 1.0 4.1 0 2
r 1.20014 2 3 tcp 40 ------- 1 2.0 4.2 0 3
+ 1.20014 3 4 tcp 40 ------- 1 2.0 4.2 0 3
- 1.20054 3 4 tcp 40 ------- 1 2.0 4.2 0 3
r 1.20094 4 3 ack 40 ------- 2 4.0 0.0 0 1
+ 1.20094 3 0 ack 40 ------- 2 4.0 0.0 0 1
- 1.20094 3 0 ack 40 ------- 2 4.0 0.0 0 1
r 1.20108 3 0 ack 40 ------- 2 4.0 0.0 0 1
+ 1.20108 0 3 tcp 1040 ------- 2 0.0 4.0 1 4
- 1.20108 0 3 tcp 1040 ------- 2 0.0 4.0 1 4
+ 1.20108 0 3 tcp 1040 ------- 2 0.0 4.0 2 5
- 1.20212 0 3 tcp 1040 ------- 2 0.0 4.0 2 5
r 1.20222 0 3 tcp 1040 ------- 2 0.0 4.0 1 4
+ 1.20222 3 4 tcp 1040 ------- 2 0.0 4.0 1 4
- 1.20222 3 4 tcp 1040 ------- 2 0.0 4.0 1 4
r 1.20326 0 3 tcp 1040 ------- 2 0.0 4.0 2 5
+ 1.20326 3 4 tcp 1040 ------- 2 0.0 4.0 2 5
- 1.21262 3 4 tcp 1040 ------- 2 0.0 4.0 2 5
r 1.30054 3 4 tcp 40 ------- 3 1.0 4.1 0 2
+ 1.30054 4 3 ack 40 ------- 3 4.1 1.0 0 6
- 1.30054 4 3 ack 40 ------- 3 4.1 1.0 0 6
r 1.30094 3 4 tcp 40 ------- 1 2.0 4.2 0 3
+ 1.30094 4 3 ack 40 ------- 1 4.2 2.0 0 7
- 1.30094 4 3 ack 40 ------- 1 4.2 2.0 0 7
r 1.31262 3 4 tcp 1040 ------- 2 0.0 4.0 1 4
+ 1.31262 4 3 ack 40 ------- 2 4.0 0.0 1 8
- 1.31262 4 3 ack 40 ------- 2 4.0 0.0 1 8
r 1.32302 3 4 tcp 1040 ------- 2 0.0 4.0 2 5
+ 1.32302 4 3 ack 40 ------- 2 4.0 0.0 2 9
- 1.32302 4 3 ack 40 ------- 2 4.0 0.0 2 9
r 1.40094 4 3 ack 40 ------- 3 4.1 1.0 0 6
+ 1.40094 3 1 ack 40 ------- 3 4.1 1.0 0 6
- 1.40094 3 1 ack 40 ------- 3 4.1 1.0 0 6
r 1.40108 3 1 ack 40 ------- 3 4.1 1.0 0 6
+ 1.40108 1 3 tcp 1040 ------- 3 1.0 4.1 1 10
- 1.40108 1 3 tcp 1040 ------- 3 1.0 4.1 1 10
+ 1.40108 1 3 tcp 1040 ------- 3 1.0 4.1 2 11
r 1.40134 4 3 ack 40 ------- 1 4.2 2.0 0 7
+ 1.40134 3 2 ack 40 ------- 1 4.2 2.0 0 7
- 1.40134 3 2 ack 40 ------- 1 4.2 2.0 0 7
r 1.40148 3 2 ack 40 ------- 1 4.2 2.0 0 7
+ 1.40148 2 3 tcp 1040 ------- 1 2.0 4.2 1 12
- 1.40148 2 3 tcp 1040 ------- 1 2.0 4.2 1 12
+ 1.40148 2 3 tcp 1040 ------- 1 2.0 4.2 2 13
- 1.40212 1 3 tcp 1040 ------- 3 1.0 4.1 2 11
r 1.40222 1 3 tcp 1040 ------- 3 1.0 4.1 1 10
+ 1.40222 3 4 tcp 1040 ------- 3 1.0 4.1 1 10
- 1.40222 3 4 tcp 1040 ------- 3 1.0 4.1 1 10
- 1.40252 2 3 tcp 1040 ------- 1 2.0 4.2 2 13
r 1.40262 2 3 tcp 1040 ------- 1 2.0 4.2 1 12
+ 1.40262 3 4 tcp 1040 ------- 1 2.0 4.2 1 12
r 1.40326 1 3 tcp 1040 ------- 3 1.0 4.1 2 11
+ 1.40326 3 4 tcp 1040 ------- 3 1.0 4.1 2 11
r 1.40366 2 3 tcp 1040 ------- 1 2.0 4.2 2 13
+ 1.40366 3 4 tcp 1040 ------- 1 2.0 4.2 2 13
- 1.41262 3 4 tcp 1040 ------- 1 2.0 4.2 1 12
r 1.41302 4 3 ack 40 ------- 2 4.0 0.0 1 8
+ 1.41302 3 0 ack 40 ------- 2 4.0 0.0 1 8
- 1.41302 3 0 ack 40 ------- 2 4.0 0.0 1 8
r 1.41316 3 0 ack 40 ------- 2 4.0 0.0 1 8
+ 1.41316 0 3 tcp 1040 ------- 2 0.0 4.0 3 14
- 1.41316 0 3 tcp 1040 ------- 2 0.0 4.0 3 14
+ 1.41316 0 3 tcp 1040 ------- 2 0.0 4.0 4 15
- 1.4142 0 3 tcp 1040 ------- 2 0.0 4.0 4 15
r 1.4143 0 3 tcp 1040 ------- 2 0.0 4.0 3 14
+ 1.4143 3 4 tcp 1040 ------- 2 0.0 4.0 3 14
r 1.41534 0 3 tcp 1040 ------- 2 0.0 4.0 4 15
+ 1.41534 3 4 tcp 1040 ------- 2 0.0 4.0 4 15
- 1.42302 3 4 tcp 1040 ------- 3 1.0 4.1 2 11
r 1.42342 4 3 ack 40 ------- 2 4.0 0.0 2 9
+ 1.42342 3 0 ack 40 ------- 2 4.0 0.0 2 9
- 1.42342 3 0 ack 40 ------- 2 4.0 0.0 2 9
r 1.42356 3 0 ack 40 ------- 2 4.0 0.0 2 9
+ 1.42356 0 3 tcp 1040 ------- 2 0.0 4.0 5 16
- 1.42356 0 3 tcp 1040 ------- 2 0.0 4.0 5 16
+ 1.42356 0 3 tcp 1040 ------- 2 0.0 4.0 6 17
- 1.4246 0 3 tcp 1040 ------- 2 0.0 4.0 6 17
r 1.4247 0 3 tcp 1040 ------- 2 0.0 4.0 5 16
+ 1.4247 3 4 tcp 1040 ------- 2 0.0 4.0 5 16
r 1.42574 0 3 tcp 1040 ------- 2 0.0 4.0 6 17
+ 1.42574 3 4 tcp 1040 ------- 2 0.0 4.0 6 17
- 1.43342 3 4 tcp 1040 ------- 1 2.0 4.2 2 13
- 1.44382 3 4 tcp 1040 ------- 2 0.0 4.0 3 14
- 1.45422 3 4 tcp 1040 ------- 2 0.0 4.0 4 15
- 1.46462 3 4 tcp 1040 ------- 2 0.0 4.0 5 16
- 1.47502 3 4 tcp 1040 ------- 2 0.0 4.0 6 17
r 1.51262 3 4 tcp 1040 ------- 3 1.0 4.1 1 10
+ 1.51262 4 3 ack 40 ------- 3 4.1 1.0 1 18
- 1.51262 4 3 ack 40 ------- 3 4.1 1.0 1 18
r 1.52302 3 4 tcp 1040 ------- 1 2.0 4.2 1 12
+ 1.52302 4 3 ack 40 ------- 1 4.2 2.0 1 19
- 1.52302 4 3 ack 40 ------- 1 4.2 2.0 1 19
r 1.53342 3 4 tcp 1040 ------- 3 1.0 4.1 2 11
+ 1.53342 4 3 ack 40 ------- 3 4.1 1.0 2 20
- 1.53342 4 3 ack 40 ------- 3 4.1 1.0 2 20
r 1.54382 3 4 tcp 1040 ------- 1 2.0 4.2 2 13
+ 1.54382 4 3 ack 40 ------- 1 4.2 2.0 2 21
- 1.54382 4 3 ack 40 ------- 1 4.2 2.0 2 21
r 1.55422 3 4 tcp 1040 ------- 2 0.0 4.0 3 14
+ 1.55422 4 3 ack 40 ------- 2 4.0 0.0 3 22
- 1.55422 4 3 ack 40 ------- 2 4.0 0.0 3 22
r 1.56462 3 4 tcp 1040 ------- 2 0.0 4.0 4 15
+ 1.56462 4 3 ack 40 ------- 2 4.0 0.0 4 23
- 1.56462 4 3 ack 40 ------- 2 4.0 0.0 4 23
r 1.57502 3 4 tcp 1040 ------- 2 0.0 4.0 5 16
+ 1.57502 4 3 ack 40 ------- 2 4.0 0.0 5 24
- 1.57502 4 3 ack 40 ------- 2 4.0 0.0 5 24
r 1.58542 3 4 tcp 1040 ------- 2 0.0 4.0 6 17
+ 1.58542 4 3 ack 40 ------- 2 4.0 0.0 6 25
- 1.58542 4 3 ack 40 ------- 2 4.0 0.0 6 25
r 1.61302 4 3 ack 40 ------- 3 4.1 1.0 1 18
+ 1.61302 3 1 ack 40 ------- 3 4.1 1.0 1 18
- 1.61302 3 1 ack 40 ------- 3 4.1 1.0 1 18
r 1.61316 3 1 ack 40 ------- 3 4.1 1.0 1 18
+ 1.61316 1 3 tcp 1040 ------- 3 1.0 4.1 3 26
- 1.61316 1 3 tcp 1040 ------- 3 1.0 4.1 3 26
+ 1.61316 1 3 tcp 1040 ------- 3 1.0 4.1 4 27
- 1.6142 1 3 tcp 1040 ------- 3 1.0 4.1 4 27
r 1.6143 1 3 tcp 1040 ------- 3 1.0 4.1 3 26
+ 1.6143 3 4 tcp 1040 ------- 3 1.0 4.1 3 26
- 1.6143 3 4 tcp 1040 ------- 3 1.0 4.1 3 26
r 1.61534 1 3 tcp 1040 ------- 3 1.0 4.1 4 27
+ 1.61534 3 4 tcp 1040 ------- 3 1.0 4.1 4 27
r 1.62342 4 3 ack 40 ------- 1 4.2 2.0 1 19
+ 1.62342 3 2 ack 40 ------- 1 4.2 2.0 1 19
- 1.62342 3 2 ack 40 ------- 1 4.2 2.0 1 19
r 1.62356 3 2 ack 40 ------- 1 4.2 2.0 1 19
+ 1.62356 2 3 tcp 1040 ------- 1 2.0 4.2 3 28
- 1.62356 2 3 tcp 1040 ------- 1 2.0 4.2 3 28
+ 1.62356 2 3 tcp 1040 ------- 1 2.0 4.2 4 29
- 1.6246 2 3 tcp 1040 ------- 1 2.0 4.2 4 29
- 1.6247 3 4 tcp 1040 ------- 3 1.0 4.1 4 27
r 1.6247 2 3 tcp 1040 ------- 1 2.0 4.2 3 28
+ 1.6247 3 4 tcp 1040 ------- 1 2.0 4.2 3 28
r 1.62574 2 3 tcp 1040 ------- 1 2.0 4.2 4 29
+ 1.62574 3 4 tcp 1040 ------- 1 2.0 4.2 4 29
r 1.63382 4 3 ack 40 ------- 3 4.1 1.0 2 20
+ 1.63382 3 1 ack 40 ------- 3 4.1 1.0 2 20
- 1.63382 3 1 ack 40 ------- 3 4.1 1.0 2 20
r 1.63396 3 1 ack 40 ------- 3 4.1 1.0 2 20
+ 1.63396 1 3 tcp 1040 ------- 3 1.0 4.1 5 30
- 1.63396 1 3 tcp 1040 ------- 3 1.0 4.1 5 30
+ 1.63396 1 3 tcp 1040 ------- 3 1.0 4.1 6 31
- 1.635 1 3 tcp 1040 ------- 3 1.0 4.1 6 31
- 1.6351 3 4 tcp 1040 ------- 1 2.0 4.2 3 28
r 1.6351 1 3 tcp 1040 ------- 3 1.0 4.1 5 30
+ 1.6351 3 4 tcp 1040 ------- 3 1.0 4.1 5 30
r 1.63614 1 3 tcp 1040 ------- 3 1.0 4.1 6 31
+ 1.63614 3 4 tcp 1040 ------- 3 1.0 4.1 6 31
r 1.64422 4 3 ack 40 ------- 1 4.2 2.0 2 21
+ 1.64422 3 2 ack 40 ------- 1 4.2 2.0 2 21
- 1.64422 3 2 ack 40 ------- 1 4.2 2.0 2 21
r 1.64436 3 2 ack 40 ------- 1 4.2 2.0 2 21
+ 1.64436 2 3 tcp 1040 ------- 1 2.0 4.2 5 32
- 1.64436 2 3 tcp 1040 ------- 1 2.0 4.2 5 32
+ 1.64436 2 3 tcp 1040 ------- 1 2.0 4.2 6 33
- 1.6454 2 3 tcp 1040 ------- 1 2.0 4.2 6 33
- 1.6455 3 4 tcp 1040 ------- 1 2.0 4.2 4 29
r 1.6455 2 3 tcp 1040 ------- 1 2.0 4.2 5 32
+ 1.6455 3 4 tcp 1040 ------- 1 2.0 4.2 5 32
r 1.64654 2 3 tcp 1040 ------- 1 2.0 4.2 6 33
+ 1.64654 3 4 tcp 1040 ------- 1 2.0 4.2 6 33
r 1.65462 4 3 ack 40 ------- 2 4.0 0.0 3 22
+ 1.65462 3 0 ack 40 ------- 2 4.0 0.0 3 22
- 1.65462 3 0 ack 40 ------- 2 4.0 0.0 3 22
r 1.65476 3 0 ack 40 ------- 2 4.0 0.0 3 22
+ 1.65476 0 3 tcp 1040 ------- 2 0.0 4.0 7 34
- 1.65476 0 3 tcp 1040 ------- 2 0.0 4.0 7 34
+ 1.65476 0 3 tcp 1040 ------- 2 0.0 4.0 8 35
- 1.6558 0 3 tcp 1040 ------- 2 0.0 4.0 8 35
- 1.6559 3 4 tcp 1040 ------- 3 1.0 4.1 5 30
r 1.6559 0 3 tcp 1040 ------- 2 0.0 4.0 7 34
+ 1.6559 3 4 tcp 1040 ------- 2 0.0 4.0 7 34
r 1.65694 0 3 tcp 1040 ------- 2 0.0 4.0 8 35
+ 1.65694 3 4 tcp 1040 ------- 2 0.0 4.0 8 35
r 1.66502 4 3 ack 40 ------- 2 4.0 0.0 4 23
+ 1.66502 3 0 ack 40 ------- 2 4.0 0.0 4 23
- 1.66502 3 0 ack 40 ------- 2 4.0 0.0 4 23
r 1.66516 3 0 ack 40 ------- 2 4.0 0.0 4 23
+ 1.66516 0 3 tcp 1040 ------- 2 0.0 4.0 9 36
- 1.66516 0 3 tcp 1040 ------- 2 0.0 4.0 9 36
+ 1.66516 0 3 tcp 1040 ------- 2 0.0 4.0 10 37
- 1.6662 0 3 tcp 1040 ------- 2 0.0 4.0 10 37
- 1.6663 3 4 tcp 1040 ------- 3 1.0 4.1 6 31
r 1.6663 0 3 tcp 1040 ------- 2 0.0 4.0 9 36
+ 1.6663 3 4 tcp 1040 ------- 2 0.0 4.0 9 36
r 1.66734 0 3 tcp 1040 ------- 2 0.0 4.0 10 37
+ 1.66734 3 4 tcp 1040 ------- 2 0.0 4.0 10 37
r 1.67542 4 3 ack 40 ------- 2 4.0 0.0 5 24
+ 1.67542 3 0 ack 40 ------- 2 4.0 0.0 5 24
- 1.67542 3 0 ack 40 ------- 2 4.0 0.0 5 24
r 1.67556 3 0 ack 40 ------- 2 4.0 0.0 5 24
+ 1.67556 0 3 tcp 1040 ------- 2 0.0 4.0 11 38
- 1.67556 0 3 tcp 1040 ------- 2 0.0 4.0 11 38
+ 1.67556 0 3 tcp 1040 ------- 2 0.0 4.0 12 39
- 1.6766 0 3 tcp 1040 ------- 2 0.0 4.0 12 39
- 1.6767 3 4 tcp 1040 ------- 1 2.0 4.2 5 32
r 1.6767 0 3 tcp 1040 ------- 2 0.0 4.0 11 38
+ 1.6767 3 4 tcp 1040 ------- 2 0.0 4.0 11 38
r 1.67774 0 3 tcp 1040 ------- 2 0.0 4.0 12 39
+ 1.67774 3 4 tcp 1040 ------- 2 0.0 4.0 12 39
r 1.68582 4 3 ack 40 ------- 2 4.0 0.0 6 25
+ 1.68582 3 0 ack 40 ------- 2 4.0 0.0 6 25
- 1.68582 3 0 ack 40 ------- 2 4.0 0.0 6 25
r 1.68596 3 0 ack 40 ------- 2 4.0 0.0 6 25
+ 1.68596 0 3 tcp 1040 ------- 2 0.0 4.0 13 40
- 1.68596 0 3 tcp 1040 ------- 2 0.0 4.0 13 40
+ 1.68596 0 3 tcp 1040 ------- 2 0.0 4.0 14 41
- 1.687 0 3 tcp 1040 ------- 2 0.0 4.0 14 41
- 1.6871 3 4 tcp 1040 ------- 1 2.0 4.2 6 33
r 1.6871 0 3 tcp 1040 ------- 2 0.0 4.0 13 40
+ 1.6871 3 4 tcp 1040 ------- 2 0.0 4.0 13 40
r 1.68814 0 3 tcp 1040 ------- 2 0.0 4.0 14 41
+ 1.68814 3 4 tcp 1040 ------- 2 0.0 4.0 14 41
d 1.68814 3 4 tcp 1040 ------- 2 0.0 4.0 14 41
- 1.6975 3 4 tcp 1040 ------- 2 0.0 4.0 7 34
- 1.7079 3 4 tcp 1040 ------- 2 0.0 4.0 8 35
- 1.7183 3 4 tcp 1040 ------- 2 0.0 4.0 9 36
r 1.7247 3 4 tcp 1040 ------- 3 1.0 4.1 3 26
+ 1.7247 4 3 ack 40 ------- 3 4.1 1.0 3 42
- 1.7247 4 3 ack 40 ------- 3 4.1 1.0 3 42
- 1.7287 3 4 tcp 1040 ------- 2 0.0 4.0 10 37
r 1.7351 3 4 tcp 1040 ------- 3 1.0 4.1 4 27
+ 1.7351 4 3 ack 40 ------- 3 4.1 1.0 4 43
- 1.7351 4 3 ack 40 ------- 3 4.1 1.0 4 43
- 1.7391 3 4 tcp 1040 ------- 2 0.0 4.0 11 38
r 1.7455 3 4 tcp 1040 ------- 1 2.0 4.2 3 28
+ 1.7455 4 3 ack 40 ------- 1 4.2 2.0 3 44
- 1.7455 4 3 ack 40 ------- 1 4.2 2.0 3 44
- 1.7495 3 4 tcp 1040 ------- 2 0.0 4.0 12 39
r 1.7559 3 4 tcp 1040 ------- 1 2.0 4.2 4 29
+ 1.7559 4 3 ack 40 ------- 1 4.2 2.0 4 45
- 1.7559 4 3 ack 40 ------- 1 4.2 2.0 4 45
- 1.7599 3 4 tcp 1040 ------- 2 0.0 4.0 13 40
r 1.7663 3 4 tcp 1040 ------- 3 1.0 4.1 5 30
+ 1.7663 4 3 ack 40 ------- 3 4.1 1.0 5 46
- 1.7663 4 3 ack 40 ------- 3 4.1 1.0 5 46
r 1.7767 3 4 tcp 1040 ------- 3 1.0 4.1 6 31
+ 1.7767 4 3 ack 40 ------- 3 4.1 1.0 6 47
- 1.7767 4 3 ack 40 ------- 3 4.1 1.0 6 47
r 1.7871 3 4 tcp 1040 ------- 1 2.0 4.2 5 32
+ 1.7871 4 3 ack 40 ------- 1 4.2 2.0 5 48
- 1.7871 4 3 ack 40 ------- 1 4.2 2.0 5 48
r 1.7975 3 4 tcp 1040 ------- 1 2.0 4.2 6 33
+ 1.7975 4 3 ack 40 ------- 1 4.2 2.0 6 49
- 1.7975 4 3 ack 40 ------- 1 4.2 2.0 6 49
r 1.8079 3 4 tcp 1040 ------- 2 0.0 4.0 7 34
+ 1.8079 4 3 ack 40 ------- 2 4.0 0.0 7 50
- 1.8079 4 3 ack 40 ------- 2 4.0 0.0 7 50
r 1.8183 3 4 tcp 1040 ------- 2 0.0 4.0 8 35
+ 1.8183 4 3 ack 40 ------- 2 4.0 0.0 8 51
- 1.8183 4 3 ack 40 ------- 2 4.0 0.0 8 51
r 1.8251 4 3 ack 40 ------- 3 4.1 1.0 3 42
+ 1.8251 3 1 ack 40 ------- 3 4.1 1.0 3 42
- 1.8251 3 1 ack 40 ------- 3 4.1 1.0 3 42
r 1.82524 3 1 ack 40 ------- 3 4.1 1.0 3 42
+ 1.82524 1 3 tcp 1040 ------- 3 1.0 4.1 7 52
- 1.82524 1 3 tcp 1040 ------- 3 1.0 4.1 7 52
+ 1.82524 1 3 tcp 1040 ------- 3 1.0 4.1 8 53
- 1.82628 1 3 tcp 1040 ------- 3 1.0 4.1 8 53
r 1.82638 1 3 tcp 1040 ------- 3 1.0 4.1 7 52
+ 1.82638 3 4 tcp 1040 ------- 3 1.0 4.1 7 52
- 1.82638 3 4 tcp 1040 ------- 3 1.0 4.1 7 52
r 1.82742 1 3 tcp 1040 ------- 3 1.0 4.1 8 53
+ 1.82742 3 4 tcp 1040 ------- 3 1.0 4.1 8 53
r 1.8287 3 4 tcp 1040 ------- 2 0.0 4.0 9 36
+ 1.8287 4 3 ack 40 ------- 2 4.0 0.0 9 54
- 1.8287 4 3 ack 40 ------- 2 4.0 0.0 9 54
r 1.8355 4 3 ack 40 ------- 3 4.1 1.0 4 43
+ 1.8355 3 1 ack 40 ------- 3 4.1 1.0 4 43
- 1.8355 3 1 ack 40 ------- 3 4.1 1.0 4 43
r 1.83564 3 1 ack 40 ------- 3 4.1 1.0 4 43
+ 1.83564 1 3 tcp 1040 ------- 3 1.0 4.1 9 55
- 1.83564 1 3 tcp 1040 ------- 3 1.0 4.1 9 55
+ 1.83564 1 3 tcp 1040 ------- 3 1.0 4.1 10 56
- 1.83668 1 3 tcp 1040 ------- 3 1.0 4.1 10 56
- 1.83678 3 4 tcp 1040 ------- 3 1.0 4.1 8 53
r 1.83678 1 3 tcp 1040 ------- 3 1.0 4.1 9 55
+ 1.83678 3 4 tcp 1040 ------- 3 1.0 4.1 9 55
r 1.83782 1 3 tcp 1040 ------- 3 1.0 4.1 10 56
+ 1.83782 3 4 tcp 1040 ------- 3 1.0 4.1 10 56
r 1.8391 3 4 tcp 1040 ------- 2 0.0 4.0 10 37
+ 1.8391 4 3 ack 40 ------- 2 4.0 0.0 10 57
- 1.8391 4 3 ack 40 ------- 2 4.0 0.0 10 57
r 1.8459 4 3 ack 40 ------- 1 4.2 2.0 3 44
+ 1.8459 3 2 ack 40 ------- 1 4.2 2.0 3 44
- 1.8459 3 2 ack 40 ------- 1 4.2 2.0 3 44
r 1.84604 3 2 ack 40 ------- 1 4.2 2.0 3 44
+ 1.84604 2 3 tcp 1040 ------- 1 2.0 4.2 7 58
- 1.84604 2 3 tcp 1040 ------- 1 2.0 4.2 7 58
+ 1.84604 2 3 tcp 1040 ------- 1 2.0 4.2 8 59
- 1.84708 2 3 tcp 1040 ------- 1 2.0 4.2 8 59
- 1.84718 3 4 tcp 1040 ------- 3 1.0 4.1 9 55
r 1.84718 2 3 tcp 1040 ------- 1 2.0 4.2 7 58
+ 1.84718 3 4 tcp 1040 ------- 1 2.0 4.2 7 58
r 1.84822 2 3 tcp 1040 ------- 1 2.0 4.2 8 59
+ 1.84822 3 4 tcp 1040 ------- 1 2.0 4.2 8 59
r 1.8495 3 4 tcp 1040 ------- 2 0.0 4.0 11 38
+ 1.8495 4 3 ack 40 ------- 2 4.0 0.0 11 60
- 1.8495 4 3 ack 40 ------- 2 4.0 0.0 11 60
r 1.8563 4 3 ack 40 ------- 1 4.2 2.0 4 45
+ 1.8563 3 2 ack 40 ------- 1 4.2 2.0 4 45
- 1.8563 3 2 ack 40 ------- 1 4.2 2.0 4 45
r 1.85644 3 2 ack 40 ------- 1 4.2 2.0 4 45
+ 1.85644 2 3 tcp 1040 ------- 1 2.0 4.2 9 61
- 1.85644 2 3 tcp 1040 ------- 1 2.0 4.2 9 61
+ 1.85644 2 3 tcp 1040 ------- 1 2.0 4.2 10 62
- 1.85748 2 3 tcp 1040 ------- 1 2.0 4.2 10 62
- 1.85758 3 4 tcp 1040 ------- 3 1.0 4.1 10 56
r 1.85758 2 3 tcp 1040 ------- 1 2.0 4.2 9 61
+ 1.85758 3 4 tcp 1040 ------- 1 2.0 4.2 9 61
r 1.85862 2 3 tcp 1040 ------- 1 2.0 4.2 10 62
+ 1.85862 3 4 tcp 1040 ------- 1 2.0 4.2 10 62
r 1.8599 3 4 tcp 1040 ------- 2 0.0 4.0 12 39
+ 1.8599 4 3 ack 40 ------- 2 4.0 0.0 12 63
- 1.8599 4 3 ack 40 ------- 2 4.0 0.0 12 63
r 1.8667 4 3 ack 40 ------- 3 4.1 1.0 5 46
+ 1.8667 3 1 ack 40 ------- 3 4.1 1.0 5 46
- 1.8667 3 1 ack 40 ------- 3 4.1 1.0 5 46
r 1.86684 3 1 ack 40 ------- 3 4.1 1.0 5 46
+ 1.86684 1 3 tcp 1040 ------- 3 1.0 4.1 11 64
- 1.86684 1 3 tcp 1040 ------- 3 1.0 4.1 11 64
+ 1.86684 1 3 tcp 1040 ------- 3 1.0 4.1 12 65
- 1.86788 1 3 tcp 1040 ------- 3 1.0 4.1 12 65
- 1.86798 3 4 tcp 1040 ------- 1 2.0 4.2 7 58
r 1.86798 1 3 tcp 1040 ------- 3 1.0 4.1 11 64
+ 1.86798 3 4 tcp 1040 ------- 3 1.0 4.1 11 64
r 1.86902 1 3 tcp 1040 ------- 3 1.0 4.1 12 65
+ 1.86902 3 4 tcp 1040 ------- 3 1.0 4.1 12 65
r 1.8703 3 4 tcp 1040 ------- 2 0.0 4.0 13 40
+ 1.8703 4 3 ack 40 ------- 2 4.0 0.0 13 66
- 1.8703 4 3 ack 40 ------- 2 4.0 0.0 13 66
r 1.8771 4 3 ack 40 ------- 3 4.1 1.0 6 47
+ 1.8771 3 1 ack 40 ------- 3 4.1 1.0 6 47
- 1.8771 3 1 ack 40 ------- 3 4.1 1.0 6 47
r 1.87724 3 1 ack 40 ------- 3 4.1 1.0 6 47
- 1.87838 3 4 tcp 1040 ------- 1 2.0 4.2 8 59
r 1.8875 4 3 ack 40 ------- 1 4.2 2.0 5 48
+ 1.8875 3 2 ack 40 ------- 1 4.2 2.0 5 48
- 1.8875 3 2 ack 40 ------- 1 4.2 2.0 5 48
r 1.88764 3 2 ack 40 ------- 1 4.2 2.0 5 48
+ 1.88764 2 3 tcp 1040 ------- 1 2.0 4.2 11 67
- 1.88764 2 3 tcp 1040 ------- 1 2.0 4.2 11 67
+ 1.88764 2 3 tcp 1040 ------- 1 2.0 4.2 12 68
- 1.88868 2 3 tcp 1040 ------- 1 2.0 4.2 12 68
- 1.88878 3 4 tcp 1040 ------- 1 2.0 4.2 9 61
r 1.88878 2 3 tcp 1040 ------- 1 2.0 4.2 11 67
+ 1.88878 3 4 tcp 1040 ------- 1 2.0 4.2 11 67
r 1.88982 2 3 tcp 1040 ------- 1 2.0 4.2 12 68
+ 1.88982 3 4 tcp 1040 ------- 1 2.0 4.2 12 68
r 1.8979 4 3 ack 40 ------- 1 4.2 2.0 6 49
+ 1.8979 3 2 ack 40 ------- 1 4.2 2.0 6 49
- 1.8979 3 2 ack 40 ------- 1 4.2 2.0 6 49
r 1.89804 3 2 ack 40 ------- 1 4.2 2.0 6 49
- 1.89918 3 4 tcp 1040 ------- 1 2.0 4.2 10 62
r 1.9083 4 3 ack 40 ------- 2 4.0 0.0 7 50
+ 1.9083 3 0 ack 40 ------- 2 4.0 0.0 7 50
- 1.9083 3 0 ack 40 ------- 2 4.0 0.0 7 50
r 1.90844 3 0 ack 40 ------- 2 4.0 0.0 7 50
+ 1.90844 0 3 tcp 1040 ------- 2 0.0 4.0 15 69
- 1.90844 0 3 tcp 1040 ------- 2 0.0 4.0 15 69
+ 1.90844 0 3 tcp 1040 ------- 2 0.0 4.0 16 70
- 1.90948 0 3 tcp 1040 ------- 2 0.0 4.0 16 70
- 1.90958 3 4 tcp 1040 ------- 3 1.0 4.1 11 64
r 1.90958 0 3 tcp 1040 ------- 2 0.0 4.0 15 69
+ 1.90958 3 4 tcp 1040 ------- 2 0.0 4.0 15 69
r 1.91062 0 3 tcp 1040 ------- 2 0.0 4.0 16 70
+ 1.91062 3 4 tcp 1040 ------- 2 0.0 4.0 16 70
r 1.9187 4 3 ack 40 ------- 2 4.0 0.0 8 51
+ 1.9187 3 0 ack 40 ------- 2 4.0 0.0 8 51
- 1.9187 3 0 ack 40 ------- 2 4.0 0.0 8 51
r 1.91884 3 0 ack 40 ------- 2 4.0 0.0 8 51
+ 1.91884 0 3 tcp 1040 ------- 2 0.0 4.0 17 71
- 1.91884 0 3 tcp 1040 ------- 2 0.0 4.0 17 71
+ 1.91884 0 3 tcp 1040 ------- 2 0.0 4.0 18 72
- 1.91988 0 3 tcp 1040 ------- 2 0.0 4.0 18 72
- 1.91998 3 4 tcp 1040 ------- 3 1.0 4.1 12 65
r 1.91998 0 3 tcp 1040 ------- 2 0.0 4.0 17 71
+ 1.91998 3 4 tcp 1040 ------- 2 0.0 4.0 17 71
r 1.92102 0 3 tcp 1040 ------- 2 0.0 4.0 18 72
+ 1.92102 3 4 tcp 1040 ------- 2 0.0 4.0 18 72
r 1.9291 4 3 ack 40 ------- 2 4.0 0.0 9 54
+ 1.9291 3 0 ack 40 ------- 2 4.0 0.0 9 54
- 1.9291 3 0 ack 40 ------- 2 4.0 0.0 9 54
r 1.92924 3 0 ack 40 ------- 2 4.0 0.0 9 54
+ 1.92924 0 3 tcp 1040 ------- 2 0.0 4.0 19 73
- 1.92924 0 3 tcp 1040 ------- 2 0.0 4.0 19 73
+ 1.92924 0 3 tcp 1040 ------- 2 0.0 4.0 20 74
- 1.93028 0 3 tcp 1040 ------- 2 0.0 4.0 20 74
- 1.93038 3 4 tcp 1040 ------- 1 2.0 4.2 11 67
r 1.93038 0 3 tcp 1040 ------- 2 0.0 4.0 19 73
+ 1.93038 3 4 tcp 1040 ------- 2 0.0 4.0 19 73
r 1.93142 0 3 tcp 1040 ------- 2 0.0 4.0 20 74
+ 1.93142 3 4 tcp 1040 ------- 2 0.0 4.0 20 74
r 1.93678 3 4 tcp 1040 ------- 3 1.0 4.1 7 52
+ 1.93678 4 3 ack 40 ------- 3 4.1 1.0 7 75
- 1.93678 4 3 ack 40 ------- 3 4.1 1.0 7 75
r 1.9395 4 3 ack 40 ------- 2 4.0 0.0 10 57
+ 1.9395 3 0 ack 40 ------- 2 4.0 0.0 10 57
- 1.9395 3 0 ack 40 ------- 2 4.0 0.0 10 57
r 1.93964 3 0 ack 40 ------- 2 4.0 0.0 10 57
+ 1.93964 0 3 tcp 1040 ------- 2 0.0 4.0 21 76
- 1.93964 0 3 tcp 1040 ------- 2 0.0 4.0 21 76
+ 1.93964 0 3 tcp 1040 ------- 2 0.0 4.0 22 77
- 1.94068 0 3 tcp 1040 ------- 2 0.0 4.0 22 77
- 1.94078 3 4 tcp 1040 ------- 1 2.0 4.2 12 68
r 1.94078 0 3 tcp 1040 ------- 2 0.0 4.0 21 76
+ 1.94078 3 4 tcp 1040 ------- 2 0.0 4.0 21 76
r 1.94182 0 3 tcp 1040 ------- 2 0.0 4.0 22 77
+ 1.94182 3 4 tcp 1040 ------- 2 0.0 4.0 22 77
d 1.94182 3 4 tcp 1040 ------- 2 0.0 4.0 22 77
r 1.94718 3 4 tcp 1040 ------- 3 1.0 4.1 8 53
+ 1.94718 4 3 ack 40 ------- 3 4.1 1.0 8 78
- 1.94718 4 3 ack 40 ------- 3 4.1 1.0 8 78
r 1.9499 4 3 ack 40 ------- 2 4.0 0.0 11 60
+ 1.9499 3 0 ack 40 ------- 2 4.0 0.0 11 60
- 1.9499 3 0 ack 40 ------- 2 4.0 0.0 11 60
r 1.95004 3 0 ack 40 ------- 2 4.0 0.0 11 60
+ 1.95004 0 3 tcp 1040 ------- 2 0.0 4.0 23 79
- 1.95004 0 3 tcp 1040 ------- 2 0.0 4.0 23 79
+ 1.95004 0 3 tcp 1040 ------- 2 0.0 4.0 24 80
- 1.95108 0 3 tcp 1040 ------- 2 0.0 4.0 24 80
- 1.95118 3 4 tcp 1040 ------- 2 0.0 4.0 15 69
r 1.95118 0 3 tcp 1040 ------- 2 0.0 4.0 23 79
+ 1.95118 3 4 tcp 1040 ------- 2 0.0 4.0 23 79
r 1.95222 0 3 tcp 1040 ------- 2 0.0 4.0 24 80
+ 1.95222 3 4 tcp 1040 ------- 2 0.0 4.0 24 80
d 1.95222 3 4 tcp 1040 ------- 2 0.0 4.0 24 80
r 1.95758 3 4 tcp 1040 ------- 3 1.0 4.1 9 55
+ 1.95758 4 3 ack 40 ------- 3 4.1 1.0 9 81
- 1.95758 4 3 ack 40 ------- 3 4.1 1.0 9 81
r 1.9603 4 3 ack 40 ------- 2 4.0 0.0 12 63
+ 1.9603 3 0 ack 40 ------- 2 4.0 0.0 12 63
- 1.9603 3 0 ack 40 ------- 2 4.0 0.0 12 63
r 1.96044 3 0 ack 40 ------- 2 4.0 0.0 12 63
+ 1.96044 0 3 tcp 1040 ------- 2 0.0 4.0 25 82
- 1.96044 0 3 tcp 1040 ------- 2 0.0 4.0 25 82
+ 1.96044 0 3 tcp 1040 ------- 2 0.0 4.0 26 83
- 1.96148 0 3 tcp 1040 ------- 2 0.0 4.0 26 83
- 1.96158 3 4 tcp 1040 ------- 2 0.0 4.0 16 70
r 1.96158 0 3 tcp 1040 ------- 2 0.0 4.0 25 82
+ 1.96158 3 4 tcp 1040 ------- 2 0.0 4.0 25 82
r 1.96262 0 3 tcp 1040 ------- 2 0.0 4.0 26 83
+ 1.96262 3 4 tcp 1040 ------- 2 0.0 4.0 26 83
d 1.96262 3 4 tcp 1040 ------- 2 0.0 4.0 26 83
r 1.96798 3 4 tcp 1040 ------- 3 1.0 4.1 10 56
+ 1.96798 4 3 ack 40 ------- 3 4.1 1.0 10 84
- 1.96798 4 3 ack 40 ------- 3 4.1 1.0 10 84
r 1.9707 4 3 ack 40 ------- 2 4.0 0.0 13 66
+ 1.9707 3 0 ack 40 ------- 2 4.0 0.0 13 66
- 1.9707 3 0 ack 40 ------- 2 4.0 0.0 13 66
r 1.97084 3 0 ack 40 ------- 2 4.0 0.0 13 66
+ 1.97084 0 3 tcp 1040 ------- 2 0.0 4.0 27 85
- 1.97084 0 3 tcp 1040 ------- 2 0.0 4.0 27 85
+ 1.97084 0 3 tcp 1040 ------- 2 0.0 4.0 28 86
- 1.97188 0 3 tcp 1040 ------- 2 0.0 4.0 28 86
- 1.97198 3 4 tcp 1040 ------- 2 0.0 4.0 17 71
r 1.97198 0 3 tcp 1040 ------- 2 0.0 4.0 27 85
+ 1.97198 3 4 tcp 1040 ------- 2 0.0 4.0 27 85
r 1.97302 0 3 tcp 1040 ------- 2 0.0 4.0 28 86
+ 1.97302 3 4 tcp 1040 ------- 2 0.0 4.0 28 86
d 1.97302 3 4 tcp 1040 ------- 2 0.0 4.0 28 86
r 1.97838 3 4 tcp 1040 ------- 1 2.0 4.2 7 58
+ 1.97838 4 3 ack 40 ------- 1 4.2 2.0 7 87
- 1.97838 4 3 ack 40 ------- 1 4.2 2.0 7 87
- 1.98238 3 4 tcp 1040 ------- 2 0.0 4.0 18 72
r 1.98878 3 4 tcp 1040 ------- 1 2.0 4.2 8 59
+ 1.98878 4 3 ack 40 ------- 1 4.2 2.0 8 88
- 1.98878 4 3 ack 40 ------- 1 4.2 2.0 8 88
- 1.99278 3 4 tcp 1040 ------- 2 0.0 4.0 19 73
r 1.99918 3 4 tcp 1040 ------- 1 2.0 4.2 9 61
+ 1.99918 4 3 ack 40 ------- 1 4.2 2.0 9 89
- 1.99918 4 3 ack 40 ------- 1 4.2 2.0 9 89
- 2.00318 3 4 tcp 1040 ------- 2 0.0 4.0 20 74
r 2.00958 3 4 tcp 1040 ------- 1 2.0 4.2 10 62
+ 2.00958 4 3 ack 40 ------- 1 4.2 2.0 10 90
- 2.00958 4 3 ack 40 ------- 1 4.2 2.0 10 90
- 2.01358 3 4 tcp 1040 ------- 2 0.0 4.0 21 76
r 2.01998 3 4 tcp 1040 ------- 3 1.0 4.1 11 64
+ 2.01998 4 3 ack 40 ------- 3 4.1 1.0 11 91
- 2.01998 4 3 ack 40 ------- 3 4.1 1.0 11 91
- 2.02398 3 4 tcp 1040 ------- 2 0.0 4.0 23 79
r 2.03038 3 4 tcp 1040 ------- 3 1.0 4.1 12 65
+ 2.03038 4 3 ack 40 ------- 3 4.1 1.0 12 92
- 2.03038 4 3 ack 40 ------- 3 4.1 1.0 12 92
- 2.03438 3 4 tcp 1040 ------- 2 0.0 4.0 25 82
r 2.03718 4 3 ack 40 ------- 3 4.1 1.0 7 75
+ 2.03718 3 1 ack 40 ------- 3 4.1 1.0 7 75
- 2.03718 3 1 ack 40 ------- 3 4.1 1.0 7 75
r 2.03732 3 1 ack 40 ------- 3 4.1 1.0 7 75
r 2.04078 3 4 tcp 1040 ------- 1 2.0 4.2 11 67
+ 2.04078 4 3 ack 40 ------- 1 4.2 2.0 11 93
- 2.04078 4 3 ack 40 ------- 1 4.2 2.0 11 93
- 2.04478 3 4 tcp 1040 ------- 2 0.0 4.0 27 85
r 2.04758 4 3 ack 40 ------- 3 4.1 1.0 8 78
+ 2.04758 3 1 ack 40 ------- 3 4.1 1.0 8 78
- 2.04758 3 1 ack 40 ------- 3 4.1 1.0 8 78
r 2.04772 3 1 ack 40 ------- 3 4.1 1.0 8 78
r 2.05118 3 4 tcp 1040 ------- 1 2.0 4.2 12 68
+ 2.05118 4 3 ack 40 ------- 1 4.2 2.0 12 94
- 2.05118 4 3 ack 40 ------- 1 4.2 2.0 12 94
r 2.05798 4 3 ack 40 ------- 3 4.1 1.0 9 81
+ 2.05798 3 1 ack 40 ------- 3 4.1 1.0 9 81
- 2.05798 3 1 ack 40 ------- 3 4.1 1.0 9 81
r 2.05812 3 1 ack 40 ------- 3 4.1 1.0 9 81
r 2.06158 3 4 tcp 1040 ------- 2 0.0 4.0 15 69
+ 2.06158 4 3 ack 48 ------- 2 4.0 0.0 13 95
- 2.06158 4 3 ack 48 ------- 2 4.0 0.0 13 95
r 2.06838 4 3 ack 40 ------- 3 4.1 1.0 10 84
+ 2.06838 3 1 ack 40 ------- 3 4.1 1.0 10 84
- 2.06838 3 1 ack 40 ------- 3 4.1 1.0 10 84
r 2.06852 3 1 ack 40 ------- 3 4.1 1.0 10 84
r 2.07198 3 4 tcp 1040 ------- 2 0.0 4.0 16 70
+ 2.07198 4 3 ack 48 ------- 2 4.0 0.0 13 96
- 2.07198 4 3 ack 48 ------- 2 4.0 0.0 13 96
r 2.07878 4 3 ack 40 ------- 1 4.2 2.0 7 87
+ 2.07878 3 2 ack 40 ------- 1 4.2 2.0 7 87
- 2.07878 3 2 ack 40 ------- 1 4.2 2.0 7 87
r 2.07892 3 2 ack 40 ------- 1 4.2 2.0 7 87
r 2.08238 3 4 tcp 1040 ------- 2 0.0 4.0 17 71
+ 2.08238 4 3 ack 48 ------- 2 4.0 0.0 13 97
- 2.08238 4 3 ack 48 ------- 2 4.0 0.0 13 97
r 2.08918 4 3 ack 40 ------- 1 4.2 2.0 8 88
+ 2.08918 3 2 ack 40 ------- 1 4.2 2.0 8 88
- 2.08918 3 2 ack 40 ------- 1 4.2 2.0 8 88
r 2.08932 3 2 ack 40 ------- 1 4.2 2.0 8 88
r 2.09278 3 4 tcp 1040 ------- 2 0.0 4.0 18 72
+ 2.09278 4 3 ack 48 ------- 2 4.0 0.0 13 98
- 2.09278 4 3 ack 48 ------- 2 4.0 0.0 13 98
r 2.09958 4 3 ack 40 ------- 1 4.2 2.0 9 89
+ 2.09958 3 2 ack 40 ------- 1 4.2 2.0 9 89
- 2.09958 3 2 ack 40 ------- 1 4.2 2.0 9 89
r 2.09972 3 2 ack 40 ------- 1 4.2 2.0 9 89
r 2.10318 3 4 tcp 1040 ------- 2 0.0 4.0 19 73
+ 2.10318 4 3 ack 48 ------- 2 4.0 0.0 13 99
- 2.10318 4 3 ack 48 ------- 2 4.0 0.0 13 99
r 2.10998 4 3 ack 40 ------- 1 4.2 2.0 10 90
+ 2.10998 3 2 ack 40 ------- 1 4.2 2.0 10 90
- 2.10998 3 2 ack 40 ------- 1 4.2 2.0 10 90
r 2.11012 3 2 ack 40 ------- 1 4.2 2.0 10 90
r 2.11358 3 4 tcp 1040 ------- 2 0.0 4.0 20 74
+ 2.11358 4 3 ack 48 ------- 2 4.0 0.0 13 100
- 2.11358 4 3 ack 48 ------- 2 4.0 0.0 13 100
r 2.12038 4 3 ack 40 ------- 3 4.1 1.0 11 91
+ 2.12038 3 1 ack 40 ------- 3 4.1 1.0 11 91
- 2.12038 3 1 ack 40 ------- 3 4.1 1.0 11 91
r 2.12052 3 1 ack 40 ------- 3 4.1 1.0 11 91
r 2.12398 3 4 tcp 1040 ------- 2 0.0 4.0 21 76
+ 2.12398 4 3 ack 48 ------- 2 4.0 0.0 13 101
- 2.12398 4 3 ack 48 ------- 2 4.0 0.0 13 101
r 2.13078 4 3 ack 40 ------- 3 4.1 1.0 12 92
+ 2.13078 3 1 ack 40 ------- 3 4.1 1.0 12 92
- 2.13078 3 1 ack 40 ------- 3 4.1 1.0 12 92
r 2.13092 3 1 ack 40 ------- 3 4.1 1.0 12 92
r 2.13438 3 4 tcp 1040 ------- 2 0.0 4.0 23 79
+ 2.13438 4 3 ack 56 ------- 2 4.0 0.0 13 102
- 2.13438 4 3 ack 56 ------- 2 4.0 0.0 13 102
r 2.14118 4 3 ack 40 ------- 1 4.2 2.0 11 93
+ 2.14118 3 2 ack 40 ------- 1 4.2 2.0 11 93
- 2.14118 3 2 ack 40 ------- 1 4.2 2.0 11 93
r 2.14132 3 2 ack 40 ------- 1 4.2 2.0 11 93
r 2.14478 3 4 tcp 1040 ------- 2 0.0 4.0 25 82
+ 2.14478 4 3 ack 64 ------- 2 4.0 0.0 13 103
- 2.14478 4 3 ack 64 ------- 2 4.0 0.0 13 103
r 2.15158 4 3 ack 40 ------- 1 4.2 2.0 12 94
+ 2.15158 3 2 ack 40 ------- 1 4.2 2.0 12 94
- 2.15158 3 2 ack 40 ------- 1 4.2 2.0 12 94
r 2.15172 3 2 ack 40 ------- 1 4.2 2.0 12 94
r 2.15518 3 4 tcp 1040 ------- 2 0.0 4.0 27 85
+ 2.15518 4 3 ack 64 ------- 2 4.0 0.0 13 104
- 2.15518 4 3 ack 64 ------- 2 4.0 0.0 13 104
r 2.16206 4 3 ack 48 ------- 2 4.0 0.0 13 95
+ 2.16206 3 0 ack 48 ------- 2 4.0 0.0 13 95
- 2.16206 3 0 ack 48 ------- 2 4.0 0.0 13 95
r 2.162208 3 0 ack 48 ------- 2 4.0 0.0 13 95
+ 2.162208 0 3 tcp 1040 ------- 2 0.0 4.0 29 105
- 2.162208 0 3 tcp 1040 ------- 2 0.0 4.0 29 105
r 2.163348 0 3 tcp 1040 ------- 2 0.0 4.0 29 105
+ 2.163348 3 4 tcp 1040 ------- 2 0.0 4.0 29 105
- 2.163348 3 4 tcp 1040 ------- 2 0.0 4.0 29 105
r 2.17246 4 3 ack 48 ------- 2 4.0 0.0 13 96
+ 2.17246 3 0 ack 48 ------- 2 4.0 0.0 13 96
- 2.17246 3 0 ack 48 ------- 2 4.0 0.0 13 96
r 2.172608 3 0 ack 48 ------- 2 4.0 0.0 13 96
+ 2.172608 0 3 tcp 1040 ------- 2 0.0 4.0 30 106
- 2.172608 0 3 tcp 1040 ------- 2 0.0 4.0 30 106
r 2.173748 0 3 tcp 1040 ------- 2 0.0 4.0 30 106
+ 2.173748 3 4 tcp 1040 ------- 2 0.0 4.0 30 106
- 2.173748 3 4 tcp 1040 ------- 2 0.0 4.0 30 106
r 2.18286 4 3 ack 48 ------- 2 4.0 0.0 13 97
+ 2.18286 3 0 ack 48 ------- 2 4.0 0.0 13 97
- 2.18286 3 0 ack 48 ------- 2 4.0 0.0 13 97
r 2.183008 3 0 ack 48 ------- 2 4.0 0.0 13 97
+ 2.183008 0 3 tcp 1040 ---A--- 2 0.0 4.0 14 107
- 2.183008 0 3 tcp 1040 ---A--- 2 0.0 4.0 14 107
r 2.184148 0 3 tcp 1040 ---A--- 2 0.0 4.0 14 107
+ 2.184148 3 4 tcp 1040 ---A--- 2 0.0 4.0 14 107
- 2.184148 3 4 tcp 1040 ---A--- 2 0.0 4.0 14 107
r 2.19326 4 3 ack 48 ------- 2 4.0 0.0 13 98
+ 2.19326 3 0 ack 48 ------- 2 4.0 0.0 13 98
- 2.19326 3 0 ack 48 ------- 2 4.0 0.0 13 98
r 2.193408 3 0 ack 48 ------- 2 4.0 0.0 13 98
r 2.20366 4 3 ack 48 ------- 2 4.0 0.0 13 99
+ 2.20366 3 0 ack 48 ------- 2 4.0 0.0 13 99
- 2.20366 3 0 ack 48 ------- 2 4.0 0.0 13 99
r 2.203808 3 0 ack 48 ------- 2 4.0 0.0 13 99
r 2.21406 4 3 ack 48 ------- 2 4.0 0.0 13 100
+ 2.21406 3 0 ack 48 ------- 2 4.0 0.0 13 100
- 2.21406 3 0 ack 48 ------- 2 4.0 0.0 13 100
r 2.214208 3 0 ack 48 ------- 2 4.0 0.0 13 100
r 2.22446 4 3 ack 48 ------- 2 4.0 0.0 13 101
+ 2.22446 3 0 ack 48 ------- 2 4.0 0.0 13 101
- 2.22446 3 0 ack 48 ------- 2 4.0 0.0 13 101
r 2.224608 3 0 ack 48 ------- 2 4.0 0.0 13 101
r 2.23494 4 3 ack 56 ------- 2 4.0 0.0 13 102
+ 2.23494 3 0 ack 56 ------- 2 4.0 0.0 13 102
- 2.23494 3 0 ack 56 ------- 2 4.0 0.0 13 102
r 2.235096 3 0 ack 56 ------- 2 4.0 0.0 13 102
r 2.24542 4 3 ack 64 ------- 2 4.0 0.0 13 103
+ 2.24542 3 0 ack 64 ------- 2 4.0 0.0 13 103
- 2.24542 3 0 ack 64 ------- 2 4.0 0.0 13 103
r 2.245584 3 0 ack 64 ------- 2 4.0 0.0 13 103
r 2.25582 4 3 ack 64 ------- 2 4.0 0.0 13 104
+ 2.25582 3 0 ack 64 ------- 2 4.0 0.0 13 104
- 2.25582 3 0 ack 64 ------- 2 4.0 0.0 13 104
r 2.255984 3 0 ack 64 ------- 2 4.0 0.0 13 104
r 2.273748 3 4 tcp 1040 ------- 2 0.0 4.0 29 105
+ 2.273748 4 3 ack 64 ------- 2 4.0 0.0 13 108
- 2.273748 4 3 ack 64 ------- 2 4.0 0.0 13 108
r 2.284148 3 4 tcp 1040 ------- 2 0.0 4.0 30 106
+ 2.284148 4 3 ack 64 ------- 2 4.0 0.0 13 109
- 2.284148 4 3 ack 64 ------- 2 4.0 0.0 13 109
r 2.294548 3 4 tcp 1040 ---A--- 2 0.0 4.0 14 107
+ 2.294548 4 3 ack 64 ------- 2 4.0 0.0 21 110
- 2.294548 4 3 ack 64 ------- 2 4.0 0.0 21 110
r 2.374388 4 3 ack 64 ------- 2 4.0 0.0 13 108
+ 2.374388 3 0 ack 64 ------- 2 4.0 0.0 13 108
- 2.374388 3 0 ack 64 ------- 2 4.0 0.0 13 108
r 2.374552 3 0 ack 64 ------- 2 4.0 0.0 13 108
+ 2.374552 0 3 tcp 1040 ------- 2 0.0 4.0 22 111
- 2.374552 0 3 tcp 1040 ------- 2 0.0 4.0 22 111
r 2.375692 0 3 tcp 1040 ------- 2 0.0 4.0 22 111
+ 2.375692 3 4 tcp 1040 ------- 2 0.0 4.0 22 111
- 2.375692 3 4 tcp 1040 ------- 2 0.0 4.0 22 111
r 2.384788 4 3 ack 64 ------- 2 4.0 0.0 13 109
+ 2.384788 3 0 ack 64 ------- 2 4.0 0.0 13 109
- 2.384788 3 0 ack 64 ------- 2 4.0 0.0 13 109
r 2.384952 3 0 ack 64 ------- 2 4.0 0.0 13 109